v 0.01 eval {set sim_annotation {FTP starts at 0.01}}
+ 0.1 0 2 tcp 40 ------- 0 0.0 5.0 0 0
- 0.1 0 2 tcp 40 ------- 0 0.0 5.0 0 0
v 0.10000000000000001 eval {set sim_annotation {Send Request SYS0 to SYS5}}
r 0.1216 0 2 tcp 40 ------- 0 0.0 5.0 0 0
+ 0.1216 2 3 tcp 40 ------- 0 0.0 5.0 0 0
- 0.1216 2 3 tcp 40 ------- 0 0.0 5.0 0 0
r 0.1432 2 3 tcp 40 ------- 0 0.0 5.0 0 0
+ 0.1432 3 5 tcp 40 ------- 0 0.0 5.0 0 0
- 0.1432 3 5 tcp 40 ------- 0 0.0 5.0 0 0
r 0.1648 3 5 tcp 40 ------- 0 0.0 5.0 0 0
+ 0.1648 5 3 ack 40 ------- 0 5.0 0.0 0 1
- 0.1648 5 3 ack 40 ------- 0 5.0 0.0 0 1
v 0.17999999999999999 eval {set sim_annotation {Receive Request SYS5 to SYS0}}
r 0.1864 5 3 ack 40 ------- 0 5.0 0.0 0 1
+ 0.1864 3 2 ack 40 ------- 0 5.0 0.0 0 1
- 0.1864 3 2 ack 40 ------- 0 5.0 0.0 0 1
r 0.208 3 2 ack 40 ------- 0 5.0 0.0 0 1
+ 0.208 2 0 ack 40 ------- 0 5.0 0.0 0 1
- 0.208 2 0 ack 40 ------- 0 5.0 0.0 0 1
r 0.2296 2 0 ack 40 ------- 0 5.0 0.0 0 1
+ 0.2296 0 2 tcp 1040 ------- 0 0.0 5.0 1 2
- 0.2296 0 2 tcp 1040 ------- 0 0.0 5.0 1 2
+ 0.2296 0 2 tcp 1040 ------- 0 0.0 5.0 2 3
v 0.23999999999999999 eval {set sim_annotation {Send Packet_0 SYS0 to SYS5}}
- 0.2712 0 2 tcp 1040 ------- 0 0.0 5.0 2 3
r 0.2912 0 2 tcp 1040 ------- 0 0.0 5.0 1 2
+ 0.2912 2 3 tcp 1040 ------- 0 0.0 5.0 1 2
- 0.2912 2 3 tcp 1040 ------- 0 0.0 5.0 1 2
r 0.3328 0 2 tcp 1040 ------- 0 0.0 5.0 2 3
+ 0.3328 2 3 tcp 1040 ------- 0 0.0 5.0 2 3
- 0.3328 2 3 tcp 1040 ------- 0 0.0 5.0 2 3
r 0.3528 2 3 tcp 1040 ------- 0 0.0 5.0 1 2
+ 0.3528 3 5 tcp 1040 ------- 0 0.0 5.0 1 2
- 0.3528 3 5 tcp 1040 ------- 0 0.0 5.0 1 2
r 0.3944 2 3 tcp 1040 ------- 0 0.0 5.0 2 3
+ 0.3944 3 5 tcp 1040 ------- 0 0.0 5.0 2 3
- 0.3944 3 5 tcp 1040 ------- 0 0.0 5.0 2 3
r 0.4144 3 5 tcp 1040 ------- 0 0.0 5.0 1 2
+ 0.4144 5 3 ack 40 ------- 0 5.0 0.0 1 4
- 0.4144 5 3 ack 40 ------- 0 5.0 0.0 1 4
v 0.41999999999999998 eval {set sim_annotation {Receive Ack_0}}
r 0.436 5 3 ack 40 ------- 0 5.0 0.0 1 4
+ 0.436 3 2 ack 40 ------- 0 5.0 0.0 1 4
- 0.436 3 2 ack 40 ------- 0 5.0 0.0 1 4
r 0.456 3 5 tcp 1040 ------- 0 0.0 5.0 2 3
+ 0.456 5 3 ack 40 ------- 0 5.0 0.0 2 5
- 0.456 5 3 ack 40 ------- 0 5.0 0.0 2 5
r 0.4576 3 2 ack 40 ------- 0 5.0 0.0 1 4
+ 0.4576 2 0 ack 40 ------- 0 5.0 0.0 1 4
- 0.4576 2 0 ack 40 ------- 0 5.0 0.0 1 4
r 0.4776 5 3 ack 40 ------- 0 5.0 0.0 2 5
+ 0.4776 3 2 ack 40 ------- 0 5.0 0.0 2 5
- 0.4776 3 2 ack 40 ------- 0 5.0 0.0 2 5
r 0.4792 2 0 ack 40 ------- 0 5.0 0.0 1 4
+ 0.4792 0 2 tcp 1040 ------- 0 0.0 5.0 3 6
- 0.4792 0 2 tcp 1040 ------- 0 0.0 5.0 3 6
+ 0.4792 0 2 tcp 1040 ------- 0 0.0 5.0 4 7
v 0.47999999999999998 eval {set sim_annotation {Send Packet_1}}
r 0.4992 3 2 ack 40 ------- 0 5.0 0.0 2 5
+ 0.4992 2 0 ack 40 ------- 0 5.0 0.0 2 5
- 0.4992 2 0 ack 40 ------- 0 5.0 0.0 2 5
- 0.5208 0 2 tcp 1040 ------- 0 0.0 5.0 4 7
r 0.5208 2 0 ack 40 ------- 0 5.0 0.0 2 5
+ 0.5208 0 2 tcp 1040 ------- 0 0.0 5.0 5 8
+ 0.5208 0 2 tcp 1040 ------- 0 0.0 5.0 6 9
r 0.5408 0 2 tcp 1040 ------- 0 0.0 5.0 3 6
+ 0.5408 2 3 tcp 1040 ------- 0 0.0 5.0 3 6
- 0.5408 2 3 tcp 1040 ------- 0 0.0 5.0 3 6
- 0.5624 0 2 tcp 1040 ------- 0 0.0 5.0 5 8
r 0.5824 0 2 tcp 1040 ------- 0 0.0 5.0 4 7
+ 0.5824 2 3 tcp 1040 ------- 0 0.0 5.0 4 7
- 0.5824 2 3 tcp 1040 ------- 0 0.0 5.0 4 7
v 0.59999999999999998 eval {set sim_annotation {Disconnect N2 So loss the packet1}}
r 0.6024 2 3 tcp 1040 ------- 0 0.0 5.0 3 6
+ 0.6024 3 5 tcp 1040 ------- 0 0.0 5.0 3 6
d 0.6024 3 5 tcp 1040 ------- 0 0.0 5.0 3 6
- 0.604 0 2 tcp 1040 ------- 0 0.0 5.0 6 9
r 0.624 0 2 tcp 1040 ------- 0 0.0 5.0 5 8
+ 0.624 2 3 tcp 1040 ------- 0 0.0 5.0 5 8
- 0.624 2 3 tcp 1040 ------- 0 0.0 5.0 5 8
r 0.644 2 3 tcp 1040 ------- 0 0.0 5.0 4 7
+ 0.644 3 5 tcp 1040 ------- 0 0.0 5.0 4 7
d 0.644 3 5 tcp 1040 ------- 0 0.0 5.0 4 7
r 0.6656 0 2 tcp 1040 ------- 0 0.0 5.0 6 9
+ 0.6656 2 3 tcp 1040 ------- 0 0.0 5.0 6 9
- 0.6656 2 3 tcp 1040 ------- 0 0.0 5.0 6 9
v 0.67000000000000004 eval {set sim_annotation {Waiting for Ack_1}}
r 0.6856 2 3 tcp 1040 ------- 0 0.0 5.0 5 8
+ 0.6856 3 5 tcp 1040 ------- 0 0.0 5.0 5 8
d 0.6856 3 5 tcp 1040 ------- 0 0.0 5.0 5 8
r 0.7272 2 3 tcp 1040 ------- 0 0.0 5.0 6 9
+ 0.7272 3 5 tcp 1040 ------- 0 0.0 5.0 6 9
d 0.7272 3 5 tcp 1040 ------- 0 0.0 5.0 6 9
v 0.94999999999999996 eval {set sim_annotation {Send Packet_1 again}}
+ 0.9608 0 2 tcp 1040 ---A--- 0 0.0 5.0 3 10
- 0.9608 0 2 tcp 1040 ---A--- 0 0.0 5.0 3 10
r 1.0224 0 2 tcp 1040 ---A--- 0 0.0 5.0 3 10
+ 1.0224 2 3 tcp 1040 ---A--- 0 0.0 5.0 3 10
- 1.0224 2 3 tcp 1040 ---A--- 0 0.0 5.0 3 10
r 1.084 2 3 tcp 1040 ---A--- 0 0.0 5.0 3 10
+ 1.084 3 5 tcp 1040 ---A--- 0 0.0 5.0 3 10
- 1.084 3 5 tcp 1040 ---A--- 0 0.0 5.0 3 10
r 1.1456 3 5 tcp 1040 ---A--- 0 0.0 5.0 3 10
+ 1.1456 5 3 ack 40 ------- 0 5.0 0.0 3 11
- 1.1456 5 3 ack 40 ------- 0 5.0 0.0 3 11
r 1.1672 5 3 ack 40 ------- 0 5.0 0.0 3 11
+ 1.1672 3 2 ack 40 ------- 0 5.0 0.0 3 11
- 1.1672 3 2 ack 40 ------- 0 5.0 0.0 3 11
r 1.1888 3 2 ack 40 ------- 0 5.0 0.0 3 11
+ 1.1888 2 0 ack 40 ------- 0 5.0 0.0 3 11
- 1.1888 2 0 ack 40 ------- 0 5.0 0.0 3 11
r 1.2104 2 0 ack 40 ------- 0 5.0 0.0 3 11
+ 1.2104 0 2 tcp 1040 ------- 0 0.0 5.0 4 12
- 1.2104 0 2 tcp 1040 ------- 0 0.0 5.0 4 12
+ 1.2104 0 2 tcp 1040 ------- 0 0.0 5.0 5 13
- 1.252 0 2 tcp 1040 ------- 0 0.0 5.0 5 13
r 1.272 0 2 tcp 1040 ------- 0 0.0 5.0 4 12
+ 1.272 2 3 tcp 1040 ------- 0 0.0 5.0 4 12
- 1.272 2 3 tcp 1040 ------- 0 0.0 5.0 4 12
r 1.3136 0 2 tcp 1040 ------- 0 0.0 5.0 5 13
+ 1.3136 2 3 tcp 1040 ------- 0 0.0 5.0 5 13
- 1.3136 2 3 tcp 1040 ------- 0 0.0 5.0 5 13
r 1.3336 2 3 tcp 1040 ------- 0 0.0 5.0 4 12
+ 1.3336 3 5 tcp 1040 ------- 0 0.0 5.0 4 12
- 1.3336 3 5 tcp 1040 ------- 0 0.0 5.0 4 12
r 1.3752 2 3 tcp 1040 ------- 0 0.0 5.0 5 13
+ 1.3752 3 5 tcp 1040 ------- 0 0.0 5.0 5 13
- 1.3752 3 5 tcp 1040 ------- 0 0.0 5.0 5 13
r 1.3952 3 5 tcp 1040 ------- 0 0.0 5.0 4 12
+ 1.3952 5 3 ack 40 ------- 0 5.0 0.0 4 14
- 1.3952 5 3 ack 40 ------- 0 5.0 0.0 4 14
r 1.4168 5 3 ack 40 ------- 0 5.0 0.0 4 14
+ 1.4168 3 2 ack 40 ------- 0 5.0 0.0 4 14
- 1.4168 3 2 ack 40 ------- 0 5.0 0.0 4 14
r 1.4368 3 5 tcp 1040 ------- 0 0.0 5.0 5 13
+ 1.4368 5 3 ack 40 ------- 0 5.0 0.0 5 15
- 1.4368 5 3 ack 40 ------- 0 5.0 0.0 5 15
r 1.4384 3 2 ack 40 ------- 0 5.0 0.0 4 14
+ 1.4384 2 0 ack 40 ------- 0 5.0 0.0 4 14
- 1.4384 2 0 ack 40 ------- 0 5.0 0.0 4 14
r 1.4584 5 3 ack 40 ------- 0 5.0 0.0 5 15
+ 1.4584 3 2 ack 40 ------- 0 5.0 0.0 5 15
- 1.4584 3 2 ack 40 ------- 0 5.0 0.0 5 15
r 1.46 2 0 ack 40 ------- 0 5.0 0.0 4 14
+ 1.46 0 2 tcp 1040 ------- 0 0.0 5.0 6 16
- 1.46 0 2 tcp 1040 ------- 0 0.0 5.0 6 16
r 1.48 3 2 ack 40 ------- 0 5.0 0.0 5 15
+ 1.48 2 0 ack 40 ------- 0 5.0 0.0 5 15
- 1.48 2 0 ack 40 ------- 0 5.0 0.0 5 15
r 1.5016 2 0 ack 40 ------- 0 5.0 0.0 5 15
+ 1.5016 0 2 tcp 1040 ------- 0 0.0 5.0 7 17
- 1.5016 0 2 tcp 1040 ------- 0 0.0 5.0 7 17
r 1.5216 0 2 tcp 1040 ------- 0 0.0 5.0 6 16
+ 1.5216 2 3 tcp 1040 ------- 0 0.0 5.0 6 16
- 1.5216 2 3 tcp 1040 ------- 0 0.0 5.0 6 16
r 1.5632 0 2 tcp 1040 ------- 0 0.0 5.0 7 17
+ 1.5632 2 3 tcp 1040 ------- 0 0.0 5.0 7 17
- 1.5632 2 3 tcp 1040 ------- 0 0.0 5.0 7 17
r 1.5832 2 3 tcp 1040 ------- 0 0.0 5.0 6 16
+ 1.5832 3 5 tcp 1040 ------- 0 0.0 5.0 6 16
- 1.5832 3 5 tcp 1040 ------- 0 0.0 5.0 6 16
r 1.6248 2 3 tcp 1040 ------- 0 0.0 5.0 7 17
+ 1.6248 3 5 tcp 1040 ------- 0 0.0 5.0 7 17
- 1.6248 3 5 tcp 1040 ------- 0 0.0 5.0 7 17
r 1.6448 3 5 tcp 1040 ------- 0 0.0 5.0 6 16
+ 1.6448 5 3 ack 40 ------- 0 5.0 0.0 6 18
- 1.6448 5 3 ack 40 ------- 0 5.0 0.0 6 18
r 1.6664 5 3 ack 40 ------- 0 5.0 0.0 6 18
+ 1.6664 3 2 ack 40 ------- 0 5.0 0.0 6 18
- 1.6664 3 2 ack 40 ------- 0 5.0 0.0 6 18
r 1.6864 3 5 tcp 1040 ------- 0 0.0 5.0 7 17
+ 1.6864 5 3 ack 40 ------- 0 5.0 0.0 7 19
- 1.6864 5 3 ack 40 ------- 0 5.0 0.0 7 19
r 1.688 3 2 ack 40 ------- 0 5.0 0.0 6 18
+ 1.688 2 0 ack 40 ------- 0 5.0 0.0 6 18
- 1.688 2 0 ack 40 ------- 0 5.0 0.0 6 18
r 1.708 5 3 ack 40 ------- 0 5.0 0.0 7 19
+ 1.708 3 2 ack 40 ------- 0 5.0 0.0 7 19
- 1.708 3 2 ack 40 ------- 0 5.0 0.0 7 19
r 1.7096 2 0 ack 40 ------- 0 5.0 0.0 6 18
+ 1.7096 0 2 tcp 1040 ------- 0 0.0 5.0 8 20
- 1.7096 0 2 tcp 1040 ------- 0 0.0 5.0 8 20
+ 1.7096 0 2 tcp 1040 ------- 0 0.0 5.0 9 21
r 1.7296 3 2 ack 40 ------- 0 5.0 0.0 7 19
+ 1.7296 2 0 ack 40 ------- 0 5.0 0.0 7 19
- 1.7296 2 0 ack 40 ------- 0 5.0 0.0 7 19
- 1.7512 0 2 tcp 1040 ------- 0 0.0 5.0 9 21
r 1.7512 2 0 ack 40 ------- 0 5.0 0.0 7 19
+ 1.7512 0 2 tcp 1040 ------- 0 0.0 5.0 10 22
r 1.7712 0 2 tcp 1040 ------- 0 0.0 5.0 8 20
+ 1.7712 2 3 tcp 1040 ------- 0 0.0 5.0 8 20
- 1.7712 2 3 tcp 1040 ------- 0 0.0 5.0 8 20
- 1.7928 0 2 tcp 1040 ------- 0 0.0 5.0 10 22
r 1.8128 0 2 tcp 1040 ------- 0 0.0 5.0 9 21
+ 1.8128 2 3 tcp 1040 ------- 0 0.0 5.0 9 21
- 1.8128 2 3 tcp 1040 ------- 0 0.0 5.0 9 21
r 1.8328 2 3 tcp 1040 ------- 0 0.0 5.0 8 20
+ 1.8328 3 5 tcp 1040 ------- 0 0.0 5.0 8 20
- 1.8328 3 5 tcp 1040 ------- 0 0.0 5.0 8 20
r 1.8544 0 2 tcp 1040 ------- 0 0.0 5.0 10 22
+ 1.8544 2 3 tcp 1040 ------- 0 0.0 5.0 10 22
- 1.8544 2 3 tcp 1040 ------- 0 0.0 5.0 10 22
r 1.8744 2 3 tcp 1040 ------- 0 0.0 5.0 9 21
+ 1.8744 3 5 tcp 1040 ------- 0 0.0 5.0 9 21
- 1.8744 3 5 tcp 1040 ------- 0 0.0 5.0 9 21
r 1.8944 3 5 tcp 1040 ------- 0 0.0 5.0 8 20
+ 1.8944 5 3 ack 40 ------- 0 5.0 0.0 8 23
- 1.8944 5 3 ack 40 ------- 0 5.0 0.0 8 23
r 1.916 2 3 tcp 1040 ------- 0 0.0 5.0 10 22
+ 1.916 3 5 tcp 1040 ------- 0 0.0 5.0 10 22
- 1.916 3 5 tcp 1040 ------- 0 0.0 5.0 10 22
r 1.916 5 3 ack 40 ------- 0 5.0 0.0 8 23
+ 1.916 3 2 ack 40 ------- 0 5.0 0.0 8 23
- 1.916 3 2 ack 40 ------- 0 5.0 0.0 8 23
r 1.936 3 5 tcp 1040 ------- 0 0.0 5.0 9 21
+ 1.936 5 3 ack 40 ------- 0 5.0 0.0 9 24
- 1.936 5 3 ack 40 ------- 0 5.0 0.0 9 24
r 1.9376 3 2 ack 40 ------- 0 5.0 0.0 8 23
+ 1.9376 2 0 ack 40 ------- 0 5.0 0.0 8 23
- 1.9376 2 0 ack 40 ------- 0 5.0 0.0 8 23
v 1.95 eval {set sim_annotation {Deattach SYS3,Packet_1 again}}
r 1.9576 5 3 ack 40 ------- 0 5.0 0.0 9 24
+ 1.9576 3 2 ack 40 ------- 0 5.0 0.0 9 24
- 1.9576 3 2 ack 40 ------- 0 5.0 0.0 9 24
r 1.9592 2 0 ack 40 ------- 0 5.0 0.0 8 23
+ 1.9592 0 2 tcp 1040 ------- 0 0.0 5.0 11 25
- 1.9592 0 2 tcp 1040 ------- 0 0.0 5.0 11 25
r 1.9776 3 5 tcp 1040 ------- 0 0.0 5.0 10 22
+ 1.9776 5 3 ack 40 ------- 0 5.0 0.0 10 26
- 1.9776 5 3 ack 40 ------- 0 5.0 0.0 10 26
r 1.9792 3 2 ack 40 ------- 0 5.0 0.0 9 24
+ 1.9792 2 0 ack 40 ------- 0 5.0 0.0 9 24
- 1.9792 2 0 ack 40 ------- 0 5.0 0.0 9 24
r 1.9992 5 3 ack 40 ------- 0 5.0 0.0 10 26
+ 1.9992 3 2 ack 40 ------- 0 5.0 0.0 10 26
- 1.9992 3 2 ack 40 ------- 0 5.0 0.0 10 26
r 2.0008 2 0 ack 40 ------- 0 5.0 0.0 9 24
r 2.0208 0 2 tcp 1040 ------- 0 0.0 5.0 11 25
+ 2.0208 2 3 tcp 1040 ------- 0 0.0 5.0 11 25
- 2.0208 2 3 tcp 1040 ------- 0 0.0 5.0 11 25
r 2.0208 3 2 ack 40 ------- 0 5.0 0.0 10 26
+ 2.0208 2 0 ack 40 ------- 0 5.0 0.0 10 26
- 2.0208 2 0 ack 40 ------- 0 5.0 0.0 10 26
r 2.0424 2 0 ack 40 ------- 0 5.0 0.0 10 26
r 2.0824 2 3 tcp 1040 ------- 0 0.0 5.0 11 25
+ 2.0824 3 5 tcp 1040 ------- 0 0.0 5.0 11 25
- 2.0824 3 5 tcp 1040 ------- 0 0.0 5.0 11 25
v 2.0899999999999999 eval {set sim_annotation {Receive Ack_1}}
v 2.1000000000000001 eval {set sim_annotation {SEnd Packet_2}}
r 2.144 3 5 tcp 1040 ------- 0 0.0 5.0 11 25
v 2.3799999999999999 eval {set sim_annotation {Receive Ack_2}}
